Li CASSCF 6-31G**                                                       
SP        CASSCF                                                      Gen                 
Number of atoms                            I                1
Info1-9                                    I   N=           9
          30          28           0           0           0         111
           1           1           2
Full Title                                 C   N=           2
Li CASSCF 6-31G**       
Route                                      C   N=          14
#P CASSCF(3,14)/gen density=current IOp(6/7=3) IOp(3/32=2) I
Op(3/33=1) IOp(5/33=1) pop=no fchk=all units=au scf(conver=8
,maxcycles=5000) sym=(pg=D02H) Nosymm out=wfx   
Charge                                     I                0
Multiplicity                               I                2
Number of electrons                        I                3
Number of alpha electrons                  I                2
Number of beta electrons                   I                1
Number of basis functions                  I               14
Number of independent functions            I               14
Number of point charges in /Mol/           I                0
Number of translation vectors              I                0
Atomic numbers                             I   N=           1
           3
Nuclear charges                            R   N=           1
   3.0000000000000000E+00
Current cartesian coordinates              R   N=           3
   0.0000000000000000E+00   0.0000000000000000E+00   0.0000000000000000E+00
Number of symbols in /Mol/                 I                0
Int Atom Types                             I   N=           1
           0
Force Field                                I                0
Atom Types                                 C   N=           1
            
MM charges                                 R   N=           1
   0.0000000000000000E+00
Integer atomic weights                     I   N=           1
           7
Real atomic weights                        R   N=           1
   7.0160045000000002E+00
Atom fragment info                         I   N=           1
           0
Atom residue num                           I   N=           1
           0
Nuclear spins                              I   N=           1
           3
Nuclear ZEff                               R   N=           1
  -1.3500000000000001E+00
Nuclear ZNuc                               R   N=           1
   3.0000000000000000E+00
Nuclear QMom                               R   N=           1
  -4.0099999999999998E+00
Nuclear GFac                               R   N=           1
   3.2564240000000000E+00
MicOpt                                     I   N=           1
          -1
Number of residues                         I                0
Number of secondary structures             I                0
Number of contracted shells                I                4
Number of primitive shells                 I               11
Pure/Cartesian d shells                    I                0
Pure/Cartesian f shells                    I                0
Highest angular momentum                   I                2
Largest degree of contraction              I                6
Shell types                                I   N=           4
           0          -1          -1          -2
Number of primitives per shell             I   N=           4
           6           3           1           1
Shell to atom map                          I   N=           4
           1           1           1           1
Primitive exponents                        R   N=          11
   6.4241891500000042E+02   9.6798515300000048E+01   2.2091121200000014E+01
   6.2010702500000034E+00   1.9351176800000012E+00   6.3673578900000039E-01
   2.3249184080000012E+00   6.3243035560000038E-01   7.9053434750000040E-02
   3.5961971750000023E-02   2.0000000000000012E-01
Contraction coefficients                   R   N=          11
   2.1426078101150887E-03   1.6208871500870647E-02   7.7315572504152941E-02
   2.4578605201320222E-01   4.7018900402525582E-01   3.4547084501855668E-01
  -3.5091745736991531E-02  -1.9123284308360533E-01   1.0839877949070680E+00
   1.0000000000000000E+00   1.0000000000000002E+00
P(S=P) Contraction coefficients            R   N=          11
   0.0000000000000000E+00   0.0000000000000000E+00   0.0000000000000000E+00
   0.0000000000000000E+00   0.0000000000000000E+00   0.0000000000000000E+00
   8.9415080432687765E-03   1.4100946400423867E-01   9.4536369532841702E-01
   1.0000000000000000E+00   0.0000000000000000E+00
Coordinates of each shell                  R   N=          12
   0.0000000000000000E+00   0.0000000000000000E+00   0.0000000000000000E+00
   0.0000000000000000E+00   0.0000000000000000E+00   0.0000000000000000E+00
   0.0000000000000000E+00   0.0000000000000000E+00   0.0000000000000000E+00
   0.0000000000000000E+00   0.0000000000000000E+00   0.0000000000000000E+00
Num ILSW                                   I              100
ILSW                                       I   N=         100
           0           0           0           0           0           0
           0           0           3           0           0          -1
           5           1           0           0           0           0
           0           0           0           3           0           0
           1           1           0           0           0           0
           0           0      100000           0          -1           0
           0           0           0           0           0           0
           0           0           0           1           0           0
           0 -2000000000           1           0           0        1403
           0           0           4          52           0           0
           0           0           0           0           0           0
           0           0           0           1           0           1
           0           0           0           0           0           0
           0           0           0           0           0           0
           0           0           0           0           0           0
           0           0           0           0           0           0
           0           0           0           0
Num RLSW                                   I               52
RLSW                                       R   N=          52
   1.0000000000000000E+00   1.0000000000000000E+00   1.0000000000000000E+00
   1.0000000000000000E+00   1.0000000000000000E+00   0.0000000000000000E+00
   0.0000000000000000E+00   1.0000000000000000E+00   0.0000000000000000E+00
   0.0000000000000000E+00   0.0000000000000000E+00   0.0000000000000000E+00
   1.0000000000000000E+00   0.0000000000000000E+00   0.0000000000000000E+00
   0.0000000000000000E+00   0.0000000000000000E+00   1.0000000000000000E+00
   0.0000000000000000E+00   0.0000000000000000E+00   0.0000000000000000E+00
   0.0000000000000000E+00   1.0000000000000000E+00   0.0000000000000000E+00
   0.0000000000000000E+00   0.0000000000000000E+00   0.0000000000000000E+00
   1.0000000000000000E+00   0.0000000000000000E+00   0.0000000000000000E+00
   0.0000000000000000E+00   0.0000000000000000E+00   1.0000000000000000E+00
   0.0000000000000000E+00   0.0000000000000000E+00   0.0000000000000000E+00
   0.0000000000000000E+00   0.0000000000000000E+00   1.0000000000000000E+00
   1.0000000000000000E+00   0.0000000000000000E+00   1.0000000000000000E+00
   0.0000000000000000E+00   0.0000000000000000E+00   0.0000000000000000E+00
   0.0000000000000000E+00   0.0000000000000000E+00   0.0000000000000000E+00
   0.0000000000000000E+00   0.0000000000000000E+00   0.0000000000000000E+00
   0.0000000000000000E+00
Number of CAS Electrons                    I                3
Number of CAS Orbitals                     I               14
MxBond                                     I                1
NBond                                      I   N=           1
           0
IBond                                      I   N=           1
           0
RBond                                      R   N=           1
   0.0000000000000000E+00
Virial Ratio                               R      0.000000000000000E+00
SCF Energy                                 R     -7.431566161315528E+00
Total Energy                               R     -7.431566161315528E+00
Job Status                                 I                1
Nuclear derivative order                   I                0
External E-field                           R   N=          35
   0.0000000000000000E+00   0.0000000000000000E+00   0.0000000000000000E+00
   0.0000000000000000E+00   0.0000000000000000E+00   0.0000000000000000E+00
   0.0000000000000000E+00   0.0000000000000000E+00   0.0000000000000000E+00
   0.0000000000000000E+00   0.0000000000000000E+00   0.0000000000000000E+00
   0.0000000000000000E+00   0.0000000000000000E+00   0.0000000000000000E+00
   0.0000000000000000E+00   0.0000000000000000E+00   0.0000000000000000E+00
   0.0000000000000000E+00   0.0000000000000000E+00   0.0000000000000000E+00
   0.0000000000000000E+00   0.0000000000000000E+00   0.0000000000000000E+00
   0.0000000000000000E+00   0.0000000000000000E+00   0.0000000000000000E+00
   0.0000000000000000E+00   0.0000000000000000E+00   0.0000000000000000E+00
   0.0000000000000000E+00   0.0000000000000000E+00   0.0000000000000000E+00
   0.0000000000000000E+00   0.0000000000000000E+00
IOpCl                                      I                0
IROHF                                      I                3
Alpha Orbital Energies                     R   N=          14
   0.0000000000000000E+00   0.0000000000000000E+00   0.0000000000000000E+00
   0.0000000000000000E+00   0.0000000000000000E+00   0.0000000000000000E+00
   0.0000000000000000E+00   0.0000000000000000E+00   0.0000000000000000E+00
   0.0000000000000000E+00   0.0000000000000000E+00   0.0000000000000000E+00
   0.0000000000000000E+00   0.0000000000000000E+00
Alpha MO coefficients                      R   N=         196
   9.9885497738110152E-01   1.6818309686538222E-02  -2.6315442704356520E-09
  -1.6587507501317880E-09  -4.6294872156078877E-10  -7.2915586077763155E-03
  -3.1550926641867132E-10  -1.5315261120549219E-10  -6.5800995237910257E-11
  -2.4455414736860158E-13   3.2284340412039631E-13   2.4754678325728204E-13
   1.9306862228623485E-13   4.0150431392658926E-13  -1.8600879666812448E-01
   3.9272898623224406E-01  -3.3274492557641574E-07  -2.0225433368816919E-07
  -5.9767153113312052E-08   6.4612696983944617E-01   3.8337290143505689E-07
   2.3297354394635149E-07   6.8564572660837637E-08   2.4831503842768362E-13
   7.0233638633302671E-12   9.9145020784573934E-12  -1.3430423425421385E-13
  -1.9510825479358850E-13   1.4982049182373761E-08  -3.4122205033501325E-09
   4.3395146373242310E-01   2.6329105212486609E-01   7.7424947462462507E-02
  -5.7564129603586265E-08   4.5639286359409242E-01   2.7690690614207913E-01
   8.1428907237891493E-02   2.1000636736792153E-16   1.3111801904202715E-16
  -1.1361462538707274E-16  -3.4546580419603634E-17  -2.7065380775093274E-19
  -3.3294871442761292E-11   8.3168631178537009E-11  -1.3365518507495258E-01
   7.6239330691724186E-02   4.8985153817474469E-01   1.3646050493858925E-10
  -1.4056703974666604E-01   8.0181977388986331E-02   5.1518375884901890E-01
  -1.6974479239677316E-16   5.2388793407705670E-16  -5.7289039201301373E-16
   1.1394484028911323E-17  -1.0949993720666583E-22   2.9418977033093879E-11
  -2.3492594567056398E-11  -2.3969374652066058E-01   4.3416132925517126E-01
  -1.3297188256236461E-01  -3.9239402770451069E-11  -2.5208928763446264E-01
   4.5661358211918146E-01  -1.3984840087462191E-01  -2.9758634149881880E-16
  -3.6429233849183898E-16  -2.6021431516383241E-17   1.8684388979458841E-17
   3.8444244603585413E-23  -3.3775198089877567E-08   3.7890031074489199E-08
   6.0981987408683069E-01   6.9931910526275898E-01   1.2957481975298217E+00
   1.4728855615544142E-07  -6.0645259761530856E-01  -6.9545763588578868E-01
  -1.2885933923094088E+00   1.8456322008922095E-17  -3.8646075435775598E-16
  -5.5391045054717718E-17  -4.9878688223581622E-18  -1.0739778014273378E-19
  -3.2864500172886932E-08   3.6792145801960484E-08   1.4708079905407616E+00
  -2.2377608942112820E-01  -5.7143590890266238E-01   1.4331970369762467E-07
  -1.4626865478801061E+00   2.2254045248495868E-01   5.6828057931627840E-01
  -4.7495863567707920E-16   1.6718633991602014E-16   1.2481211819438201E-16
  -4.0553574503617359E-17  -1.0448876210512494E-19  -1.7564008483090326E-08
   1.9731798013495848E-08  -6.8807393124919000E-02   1.4144850412911807E+00
  -7.3101880402184338E-01   7.6705158971251482E-08   6.8427455497756126E-02
  -1.4066746002063240E+00   7.2698229664700842E-01   2.0423230637438317E-16
  -9.2189419633309359E-16   8.5097174585950279E-16  -1.1915470935839585E-18
  -5.5921615777550057E-20   8.1030668635112935E-02   2.3273604309427181E+00
   2.4210463985932476E-08   1.4689151327749969E-08   4.3195438956326429E-09
  -2.2871192458782548E+00  -3.1602142077444440E-08  -1.9173898385744000E-08
  -5.6383848105618565E-09  -6.1170156435143281E-15  -6.0998120034128890E-14
  -8.6415392053156978E-14   9.6648883917419408E-15   9.8859960802663897E-15
  -4.3813750297224352E-13   4.6863767120871286E-14   2.6866953214187587E-19
   1.6313519356750996E-19   4.8068312149095442E-20   1.5160274959658865E-13
  -1.5382315225801582E-20  -9.4579060078008449E-21  -2.7986036028931783E-21
   1.9315552966496314E-26  -1.7404776353599644E-24  -2.4202999046444677E-24
  -3.9976736985162801E-26   9.9999999999999978E-01  -1.2075191232426038E-13
  -5.5560817936571235E-16  -2.1625650184554753E-16   2.2534571355686850E-15
  -9.9839081035258285E-16   4.4884759127063749E-15   1.7892234511678591E-16
  -2.2316056641390289E-15  -2.5376514698972687E-16   5.2296012916721545E-14
   8.1578422802478845E-01  -5.7835637223601244E-01  -1.4987888007507397E-26
  -2.9095619396564445E-26   1.8804031156079572E-12  -4.5320634520707594E-12
   4.5317580069789304E-17   5.5406421924921220E-17   7.5728789093574810E-16
  -8.0893255109664306E-12  -1.8319916864804205E-16  -6.6470307783949908E-17
  -6.4791805894230894E-16   1.1354309912333574E-05   5.7835637219873137E-01
   8.1578422797220229E-01  -1.1740291454105732E-11   5.1966410973746531E-24
  -1.8554719142073346E-13  -2.2011635482344912E-14   1.7449398606647464E-16
  -8.7546345202310733E-18   2.2206044823852036E-17   1.2937187365921859E-13
  -6.1217107140359699E-16   5.8133938552582740E-17   3.4153945865787351E-17
   1.1510746306398323E-01  -7.5588526386987493E-07  -1.0661925761350306E-06
   9.9335304496702759E-01  -4.8760297502702784E-26   3.1436847695766654E-13
  -7.7169745874993689E-14   5.9694683499978143E-16   7.4295116193429255E-17
   7.9941164576901337E-16  -1.9243394501675153E-13  -1.2091551613247459E-15
   3.7533374414669112E-16  -3.1947562578518705E-16   9.9335304490299658E-01
  -6.5231888406354338E-06  -9.2010994883241753E-06  -1.1510746307140282E-01
   1.3382598396704752E-25
Total CASSCF Density                       R   N=         105
   2.0298969643609297E+00  -3.9373716169816025E-02   1.5443884851812634E-01
  -7.9833182131676128E-07   1.2143716146325163E-06   1.5167680948362569E-04
  -4.8425469857961115E-07   7.3654508819288024E-07   5.8617089700058687E-12
   1.5167680337381000E-04  -1.4228738932254685E-07   2.1635516837871291E-07
   1.7206543760902687E-12   1.0505769190816885E-12   1.5167680012725056E-04
  -1.3483157930807974E-01   2.5332408210850565E-01   2.0120809157269479E-06
   1.2203806536519664E-06   3.5847963030880614E-07   4.1820796960153189E-01
   7.3782139871615520E-07  -1.1687244687981250E-06  -9.0652203037394120E-05
  -5.6380892891551152E-12  -1.6557947301720926E-12  -1.9343757157195017E-06
   5.9710692820592199E-05   4.4749838137246845E-07  -7.0885162486462493E-07
  -5.6380180661538704E-12  -9.0652197160640379E-05  -1.0080312741807881E-12
  -1.1732345226696080E-06   5.4224969764192628E-12   5.9710687168503166E-05
   1.3157876189494248E-07  -2.0839897615614219E-07  -1.6571223209539139E-12
  -1.0088709877205901E-12  -9.0652194037867776E-05  -3.4492551114948625E-07
   1.5941815160810190E-12   9.6901366081431983E-13   5.9710684165043550E-05
  -4.7960628925174649E-13   1.4897076049558894E-14  -1.3239027942183462E-10
  -8.6070199296643755E-11   5.1228372065785568E-11   4.2349904460933001E-14
   6.9580632707231356E-11   4.6512883545029176E-11  -2.6390277404709618E-11
   1.4296891533028833E-06  -6.5051307007415609E-13   3.1499198185673313E-12
   4.1757784505882699E-11  -4.8597751600638018E-12   2.4188552142459545E-10
   5.1625526416962900E-12  -2.2423100931285397E-11   3.6919631174410932E-12
  -1.2881552924677354E-10   8.7904835982212168E-16   1.4296891539342877E-06
  -1.4474342832882226E-12   4.4311675023456869E-12  -4.8986793859633112E-12
   3.8776850435590349E-11   1.3780994145508510E-10   7.2815195537319881E-12
   3.6128782048267960E-12  -1.8966686410616395E-11  -7.1783117495531987E-11
   1.0852111473050363E-15   7.5206098660983334E-16   1.4296891531999065E-06
   3.5724240924064684E-13   3.4586010423654139E-14   2.3195046453004068E-10
  -1.3854546071385115E-10  -2.1565332361256565E-12   4.2965278906973518E-14
  -1.2148047204316644E-10   7.2028441035788946E-11   1.1554510427551389E-12
  -4.4670416137803408E-16   6.5510695805743959E-15   8.7961476033071451E-15
   1.4296891543867841E-06   7.2328653920549240E-13   1.0797672095080653E-13
   1.3838129285139525E-10   2.3241120959695445E-10  -5.5017048219489668E-13
   1.4864225555610265E-13  -7.2112347653585634E-11  -1.2164067126072152E-10
   3.9845312720329479E-13  -8.6011884979228649E-16  -6.2011909687777160E-15
   5.3770771566880029E-15  -4.0518506619172818E-18   1.4296891543907781E-06
Mulliken Charges                           R   N=           1
   7.1054273576010019E-15
ONIOM Charges                              I   N=          16
           0           0           0           0           0           0
           0           0           0           0           0           0
           0           0           0           0
ONIOM Multiplicities                       I   N=          16
           2           0           0           0           0           0
           0           0           0           0           0           0
           0           0           0           0
Atom Layers                                I   N=           1
           1
Atom Modifiers                             I   N=           1
           0
Int Atom Modified Types                    I   N=           1
           0
Force Field                                I                0
Atom Modified Types                        C   N=           1
            
Link Atoms                                 I   N=           1
           0
Atom Modified MM Charges                   R   N=           1
   0.0000000000000000E+00
Link Distances                             R   N=           4
   0.0000000000000000E+00   0.0000000000000000E+00   0.0000000000000000E+00
   0.0000000000000000E+00
Cartesian Gradient                         R   N=           3
   0.0000000000000000E+00   0.0000000000000000E+00   0.0000000000000000E+00
Nonadiabatic coupling                      R   N=           3
   0.0000000000000000E+00   0.0000000000000000E+00   0.0000000000000000E+00
Dipole Moment                              R   N=           3
   1.0343923376844349E-06   6.2730776008178421E-07   1.8638098546932069E-07
Quadrupole Moment                          R   N=           6
  -2.8697932918930746E-11   5.7660543006932130E-12   2.2931878618237533E-11
  -3.3554598152425406E-11  -4.6735230334964635E-11  -5.8082813653478613E-11
QEq coupling tensors                       R   N=           6
   5.5896028546461218E-13   6.5660682992558110E-13  -1.0184445879228103E-13
   8.9961648010593050E-13   1.0294776451058522E-12  -4.5001039931473013E-13
ClPar MaxAn                                I              200
ClPar NIntPar                              I                4
ClPar NRealPar                             I               16
ClPar NBits                                I               30
ClPar LenBitVec                            I                1
ClPar Read BitMap                          I   N=         200
           0           0           0           0           0           0
           0           0           0           0           0           0
           0           0           0           0           0           0
           0           0           0           0           0           0
           0           0           0           0           0           0
           0           0           0           0           0           0
           0           0           0           0           0           0
           0           0           0           0           0           0
           0           0           0           0           0           0
           0           0           0           0           0           0
           0           0           0           0           0           0
           0           0           0           0           0           0
           0           0           0           0           0           0
           0           0           0           0           0           0
           0           0           0           0           0           0
           0           0           0           0           0           0
           0           0           0           0           0           0
           0           0           0           0           0           0
           0           0           0           0           0           0
           0           0           0           0           0           0
           0           0           0           0           0           0
           0           0           0           0           0           0
           0           0           0           0           0           0
           0           0           0           0           0           0
           0           0           0           0           0           0
           0           0           0           0           0           0
           0           0           0           0           0           0
           0           0           0           0           0           0
           0           0           0           0           0           0
           0           0           0           0           0           0
           0           0           0           0           0           0
           0           0           0           0           0           0
           0           0           0           0           0           0
           0           0
ClPar Default BitMap                       I   N=         200
        2016        2016        2016        2016        2016        2016
        2016        2016        2016        2016        2016        2016
        2016        2016        2016        2016        2016        2016
        2016        2016        2016        2016        2016        2016
        2016        2016        2016        2016        2016        2016
        2016        2016        2016        2016        2016        2016
        2016        2016        2016        2016        2016        2016
        2016        2016        2016        2016        2016        2016
        2016        2016        2016        2016        2016        2016
        2016        2016        2016        2016        2016        2016
        2016        2016        2016        2016        2016        2016
        2016        2016        2016        2016        2016        2016
        2016        2016        2016        2016        2016        2016
        2016        2016        2016        2016        2016        2016
        2016        2016         480         480         480         480
         480         480         480         480         480         480
         480         480         480         480         480         480
         480         480         480         480         480         480
         480         480         480         480         480         480
         480         480         480         480         480         480
         480         480         480         480         480         480
         480         480         480         480         480         480
         480         480         480         480         480         480
         480         480         480         480         480         480
         480         480         480         480         480         480
         480         480         480         480         480         480
         480         480         480         480         480         480
         480         480         480         480         480         480
         480         480         480         480         480         480
         480         480         480         480         480         480
         480         480         480         480         480         480
         480         480         480         480         480         480
         480         480         480         480         480         480
         480         480
ClPar Int Params                           I   N=         800
           0           0           0           0           0           0
           0           0           0           0           0           0
           0           0           0           0           0           0
           0           0           0           0           0           0
           0           0           0           0           0           0
           0           0           0           0           0           0
           0           0           0           0           0           0
           0           0           0           0           0           0
           0           0           0           0           0           0
           0           0           0           0           0           0
           0           0           0           0           0           0
           0           0           0           0           0           0
           0           0           0           0           0           0
           0           0           0           0           0           0
           0           0           0           0           0           0
           0           0           0           0           0           0
           0           0           0           0           0           0
           0           0           0           0           0           0
           0           0           0           0           0           0
           0           0           0           0           0           0
           0           0           0           0           0           0
           0           0           0           0           0           0
           0           0           0           0           0           0
           0           0           0           0           0           0
           0           0           0           0           0           0
           0           0           0           0           0           0
           0           0           0           0           0           0
           0           0           0           0           0           0
           0           0           0           0           0           0
           0           0           0           0           0           0
           0           0           0           0           0           0
           0           0           0           0           0           0
           0           0           0           0           0           0
           0           0           0           0           0           0
           0           0           0           0           0           0
           0           0           0           0           0           0
           0           0           0           0           0           0
           0           0           0           0           0           0
           0           0           0           0           0           0
           0           0           0           0           0           0
           0           0           0           0           0           0
           0           0           0           0           0           0
           0           0           0           0           0           0
           0           0           0           0           0           0
           0           0           0           0           0           0
           0           0           0           0           0           0
           0           0           0           0           0           0
           0           0           0           0           0           0
           0           0           0           0           0           0
           0           0           0           0           0           0
           0           0           0           0           0           0
           0           0           0           0           0           0
           0           0           0           0           0           0
           0           0           0           0           0           0
           0           0           0           0           0           0
           0           0           0           0           0           0
           0           0           0           0           0           0
           0           0           0           0           0           0
           0           0           0           0           0           0
           0           0           0           0           0           0
           0           0           0           0           0           0
           0           0           0           0           0           0
           0           0           0           0           0           0
           0           0           0           0           0           0